Program Version,EnergyPlus, Version 9.6.0-f420c06a69, YMD=2024.08.16 15:37
1,5,Environment Title[],Latitude[deg],Longitude[deg],Time Zone[],Elevation[m]
2,8,Day of Simulation[],Month[],Day of Month[],DST Indicator[1=yes 0=no],Hour[],StartMinute[],EndMinute[],DayType
3,5,Cumulative Day of Simulation[],Month[],Day of Month[],DST Indicator[1=yes 0=no],DayType  ! When Daily Report Variables Requested
4,2,Cumulative Days of Simulation[],Month[]  ! When Monthly Report Variables Requested
5,1,Cumulative Days of Simulation[] ! When Run Period Report Variables Requested
6,1,Calendar Year of Simulation[] ! When Annual Report Variables Requested
7,1,Environment,Site Outdoor Air Drybulb Temperature [C] !Hourly
398,1,THERMAL ZONE: ROOM1,Zone Air Temperature [C] !Hourly
461,1,THERMAL ZONE: ROOM2,Zone Air Temperature [C] !Hourly
End of Data Dictionary
1,RUN PERIOD 1,  37.62,-122.40,  -8.00,   2.00
2,1, 1, 1, 0, 1, 0.00,60.00,Thursday
7,6.991666666666667
398,12.824014770963776
461,12.811381840617974
2,1, 1, 1, 0, 2, 0.00,60.00,Thursday
7,7.2
398,12.286859869180196
461,12.271170821391687
2,1, 1, 1, 0, 3, 0.00,60.00,Thursday
7,6.908333333333334
398,11.729253521757562
461,11.71114297606457
2,1, 1, 1, 0, 4, 0.00,60.00,Thursday
7,6.3500000000000005
398,11.100832189758579
461,11.0798160611664
2,1, 1, 1, 0, 5, 0.00,60.00,Thursday
7,5.108333333333334
398,10.350719455996678
461,10.325956231498733
2,1, 1, 1, 0, 6, 0.00,60.00,Thursday
7,4.3999999999999995
398,9.617956228359441
461,9.58967999534816
2,1, 1, 1, 0, 7, 0.00,60.00,Thursday
7,5.391666666666667
398,9.755321568287645
461,9.721226605126141
2,1, 1, 1, 0, 8, 0.00,60.00,Thursday
7,5.458333333333333
398,9.66748275098856
461,9.771321927700134
2,1, 1, 1, 0, 9, 0.00,60.00,Thursday
7,6.633333333333333
398,10.208809400205576
461,11.416173567069292
2,1, 1, 1, 0,10, 0.00,60.00,Thursday
7,8.441666666666666
398,11.76639577441729
461,14.293065175469067
2,1, 1, 1, 0,11, 0.00,60.00,Thursday
7,9.191666666666666
398,13.592403173207925
461,16.693540606627185
2,1, 1, 1, 0,12, 0.00,60.00,Thursday
7,9.75
398,15.241095592263761
461,18.066203891593148
2,1, 1, 1, 0,13, 0.00,60.00,Thursday
7,10.350000000000001
398,16.63239423571508
461,18.87394446023578
2,1, 1, 1, 0,14, 0.00,60.00,Thursday
7,10.891666666666666
398,18.113374429967756
461,19.713545221961592
2,1, 1, 1, 0,15, 0.00,60.00,Thursday
7,12.733333333333334
398,19.913781540134682
461,20.641043393952213
2,1, 1, 1, 0,16, 0.00,60.00,Thursday
7,13.9
398,21.33663678512305
461,21.14861568254233
2,1, 1, 1, 0,17, 0.00,60.00,Thursday
7,12.266666666666666
398,20.645132008781662
461,20.279500992898566
2,1, 1, 1, 0,18, 0.00,60.00,Thursday
7,11.1
398,19.092185471334624
461,18.948475280831875
2,1, 1, 1, 0,19, 0.00,60.00,Thursday
7,10.808333333333332
398,18.122023944001857
461,18.071283931247756
2,1, 1, 1, 0,20, 0.00,60.00,Thursday
7,10.600000000000001
398,17.385357784257305
461,17.37136619150725
2,1, 1, 1, 0,21, 0.00,60.00,Thursday
7,9.608333333333333
398,16.718458273759044
461,16.71616452541738
2,1, 1, 1, 0,22, 0.00,60.00,Thursday
7,9.191666666666666
398,16.069403738025176
461,16.067693717966247
2,1, 1, 1, 0,23, 0.00,60.00,Thursday
7,8.466666666666667
398,14.741200398482505
461,14.73777359780325
2,1, 1, 1, 0,24, 0.00,60.00,Thursday
7,7.158333333333334
398,13.656913998921702
461,13.647739568564036
2,2, 1, 2, 0, 1, 0.00,60.00,Friday
7,7.983333333333334
398,13.042692464585187
461,13.029384025762143
2,2, 1, 2, 0, 2, 0.00,60.00,Friday
7,7.266666666666667
398,12.474469814995643
461,12.45755743212492
2,2, 1, 2, 0, 3, 0.00,60.00,Friday
7,5.808333333333333
398,11.550866303360648
461,11.528834220684567
2,2, 1, 2, 0, 4, 0.00,60.00,Friday
7,4.608333333333333
398,10.724007931404804
461,10.697634018362285
2,2, 1, 2, 0, 5, 0.00,60.00,Friday
7,4.891666666666667
398,10.067719655526039
461,10.038672016294331
2,2, 1, 2, 0, 6, 0.00,60.00,Friday
7,6.533333333333332
398,9.888546107908061
461,9.859352519256682
2,2, 1, 2, 0, 7, 0.00,60.00,Friday
7,7.55
398,10.126716730599014
461,10.096848339888025
2,2, 1, 2, 0, 8, 0.00,60.00,Friday
7,7.45
398,10.078339752447699
461,10.170667986752157
2,2, 1, 2, 0, 9, 0.00,60.00,Friday
7,9.183333333333334
398,10.664329506799598
461,11.681579339047468
2,2, 1, 2, 0,10, 0.00,60.00,Friday
7,11.241666666666667
398,12.255319416830021
461,14.425655339604825
2,2, 1, 2, 0,11, 0.00,60.00,Friday
7,12.983333333333333
398,14.055754505767972
461,16.67466974666539
2,2, 1, 2, 0,12, 0.00,60.00,Friday
7,13.9
398,16.012438196414863
461,18.495424855039
2,2, 1, 2, 0,13, 0.00,60.00,Friday
7,13.9
398,17.817936380566834
461,19.869401086126697
2,2, 1, 2, 0,14, 0.00,60.00,Friday
7,13.9
398,19.217793398619158
461,20.68760519422049
2,2, 1, 2, 0,15, 0.00,60.00,Friday
7,12.908333333333333
398,20.433915286644517
461,21.106659154276326
2,2, 1, 2, 0,16, 0.00,60.00,Friday
7,12.550000000000002
398,21.30635637608665
461,21.155868647203757
2,2, 1, 2, 0,17, 0.00,60.00,Friday
7,11.808333333333335
398,20.60261897259262
461,20.26539720765188
2,2, 1, 2, 0,18, 0.00,60.00,Friday
7,10.808333333333332
398,19.115210831364564
461,18.96981441318127
2,2, 1, 2, 0,19, 0.00,60.00,Friday
7,11.241666666666667
398,18.20892730815751
461,18.143339949374774
2,2, 1, 2, 0,20, 0.00,60.00,Friday
7,11.700000000000001
398,17.58252491232818
461,17.54805578044468
2,2, 1, 2, 0,21, 0.00,60.00,Friday
7,10.708333333333334
398,16.967004183008385
461,16.942263762892576
2,2, 1, 2, 0,22, 0.00,60.00,Friday
7,9.358333333333334
398,16.274967844872794
461,16.250222023011442
2,2, 1, 2, 0,23, 0.00,60.00,Friday
7,9.191666666666666
398,14.943458172351841
461,14.919320369376841
2,2, 1, 2, 0,24, 0.00,60.00,Friday
7,9.108333333333333
398,14.196143415817014
461,14.170023075641076
2,3, 1, 3, 0, 1, 0.00,60.00,Saturday
7,9.191666666666666
398,13.608671430060527
461,13.579735986798646
2,3, 1, 3, 0, 2, 0.00,60.00,Saturday
7,9.75
398,13.244577658684774
461,13.216296474682268
2,3, 1, 3, 0, 3, 0.00,60.00,Saturday
7,11.283333333333333
398,13.148432836788169
461,13.121693467578709
2,3, 1, 3, 0, 4, 0.00,60.00,Saturday
7,13.191666666666668
398,13.395620263112528
461,13.373409537961834
2,3, 1, 3, 0, 5, 0.00,60.00,Saturday
7,13.258333333333333
398,13.49918997058817
461,13.486780186366852
2,3, 1, 3, 0, 6, 0.00,60.00,Saturday
7,12.450000000000001
398,13.147271708195666
461,13.136878642295931
2,3, 1, 3, 0, 7, 0.00,60.00,Saturday
7,11.558333333333332
398,12.914595160086359
461,12.902225232005236
2,3, 1, 3, 0, 8, 0.00,60.00,Saturday
7,11.1
398,12.667413801101652
461,12.752104989348664
2,3, 1, 3, 0, 9, 0.00,60.00,Saturday
7,11.450000000000001
398,13.016885527124758
461,13.878147316847702
2,3, 1, 3, 0,10, 0.00,60.00,Saturday
7,12.633333333333333
398,14.173700176252423
461,15.975817161099828
2,3, 1, 3, 0,11, 0.00,60.00,Saturday
7,12.658333333333333
398,15.677099350801868
461,17.956926399436167
2,3, 1, 3, 0,12, 0.00,60.00,Saturday
7,13.833333333333334
398,17.11934965535929
461,19.231024611853176
2,3, 1, 3, 0,13, 0.00,60.00,Saturday
7,15.35
398,18.714578887434676
461,20.429052640721114
2,3, 1, 3, 0,14, 0.00,60.00,Saturday
7,15.891666666666666
398,20.295848767356066
461,21.51869773562794
2,3, 1, 3, 0,15, 0.00,60.00,Saturday
7,16.099999999999998
398,21.54332989459167
461,22.104045298195818
2,3, 1, 3, 0,16, 0.00,60.00,Saturday
7,14.816666666666668
398,21.981555923339744
461,21.971348076535374
2,3, 1, 3, 0,17, 0.00,60.00,Saturday
7,13.9
398,21.11350090559284
461,20.987439833727656
2,3, 1, 3, 0,18, 0.00,60.00,Saturday
7,13.258333333333333
398,19.952189165853166
461,19.931341085950248
2,3, 1, 3, 0,19, 0.00,60.00,Saturday
7,12.450000000000001
398,18.374003098508897
461,18.387901721675576
2,3, 1, 3, 0,20, 0.00,60.00,Saturday
7,11.266666666666666
398,17.291754236923936
461,17.311522200746733
2,3, 1, 3, 0,21, 0.00,60.00,Saturday
7,10.25
398,16.37840855698941
461,16.393464215982075
2,3, 1, 3, 0,22, 0.00,60.00,Saturday
7,9.358333333333334
398,15.563338678964463
461,15.570862396120823
2,3, 1, 3, 0,23, 0.00,60.00,Saturday
7,8.9
398,14.825411648764627
461,14.825632256505173
2,3, 1, 3, 0,24, 0.00,60.00,Saturday
7,8.9
398,14.24537195338835
461,14.239353233024367
2,4, 1, 4, 0, 1, 0.00,60.00,Sunday
7,8.549999999999999
398,13.670232136653267
461,13.659110174236808
2,4, 1, 4, 0, 2, 0.00,60.00,Sunday
7,8.008333333333333
398,13.044720935029916
461,13.02863497327664
2,4, 1, 4, 0, 3, 0.00,60.00,Sunday
7,8.091666666666667
398,12.525690635268427
461,12.505905259600032
2,4, 1, 4, 0, 4, 0.00,60.00,Sunday
7,7.016666666666668
398,11.9168616394385
461,11.893772775539398
2,4, 1, 4, 0, 5, 0.00,60.00,Sunday
7,5.108333333333334
398,10.978637655737863
461,10.94967733283157
2,4, 1, 4, 0, 6, 0.00,60.00,Sunday
7,5.391666666666667
398,10.343518473573653
461,10.310773936523772
2,4, 1, 4, 0, 7, 0.00,60.00,Sunday
7,5.458333333333333
398,9.918532297729199
461,9.884711576170794
2,4, 1, 4, 0, 8, 0.00,60.00,Sunday
7,5.991666666666667
398,9.550794131864151
461,9.576132822754625
2,4, 1, 4, 0, 9, 0.00,60.00,Sunday
7,7.633333333333333
398,9.99649810150811
461,10.47656156878732
2,4, 1, 4, 0,10, 0.00,60.00,Sunday
7,8.65
398,10.680331023031812
461,11.373854149751347
2,4, 1, 4, 0,11, 0.00,60.00,Sunday
7,8.9
398,11.364565816822916
461,12.097198406840073
2,4, 1, 4, 0,12, 0.00,60.00,Sunday
7,9.541666666666666
398,12.57190326471221
461,13.414375848035816
2,4, 1, 4, 0,13, 0.00,60.00,Sunday
7,10.350000000000001
398,13.841511835323798
461,14.583778655528013
2,4, 1, 4, 0,14, 0.00,60.00,Sunday
7,10.600000000000001
398,15.108061233680127
461,15.58605752905864
2,4, 1, 4, 0,15, 0.00,60.00,Sunday
7,10.25
398,15.691523810479815
461,15.824280072811485
2,4, 1, 4, 0,16, 0.00,60.00,Sunday
7,10.350000000000001
398,15.660659210018034
461,15.541240245163946
2,4, 1, 4, 0,17, 0.00,60.00,Sunday
7,10.25
398,14.990131793661265
461,14.84792551147963
2,4, 1, 4, 0,18, 0.00,60.00,Sunday
7,10.0
398,14.11095253053142
461,14.032368144119658
2,4, 1, 4, 0,19, 0.00,60.00,Sunday
7,9.65
398,13.491011395099518
461,13.437324405683706
2,4, 1, 4, 0,20, 0.00,60.00,Sunday
7,9.4
398,12.98366960285321
461,12.938596064062246
2,4, 1, 4, 0,21, 0.00,60.00,Sunday
7,9.108333333333333
398,12.574312484768972
461,12.531084144938143
2,4, 1, 4, 0,22, 0.00,60.00,Sunday
7,8.9
398,12.203197167823191
461,12.160371676548854
2,4, 1, 4, 0,23, 0.00,60.00,Sunday
7,7.908333333333335
398,11.726563363238673
461,11.683105451632015
2,4, 1, 4, 0,24, 0.00,60.00,Sunday
7,7.841666666666666
398,11.267508638940349
461,11.22338826185869
2,5, 1, 5, 0, 1, 0.00,60.00,Monday
7,8.008333333333333
398,11.003176768752837
461,10.959557599302938
2,5, 1, 5, 0, 2, 0.00,60.00,Monday
7,7.799999999999998
398,10.624778281695782
461,10.58032809981872
2,5, 1, 5, 0, 3, 0.00,60.00,Monday
7,6.166666666666667
398,10.016472542658155
461,9.969780851839177
2,5, 1, 5, 0, 4, 0.00,60.00,Monday
7,4.3583333333333325
398,9.135917110094828
461,9.086405312096382
2,5, 1, 5, 0, 5, 0.00,60.00,Monday
7,4.191666666666666
398,8.538219514809137
461,8.487787610460051
2,5, 1, 5, 0, 6, 0.00,60.00,Monday
7,4.108333333333333
398,8.082250734910446
461,8.031265687119648
2,5, 1, 5, 0, 7, 0.00,60.00,Monday
7,5.183333333333334
398,8.205797812159966
461,8.149961010268548
2,5, 1, 5, 0, 8, 0.00,60.00,Monday
7,6.45
398,8.318074672281938
461,8.32159953225777
2,5, 1, 5, 0, 9, 0.00,60.00,Monday
7,6.991666666666667
398,8.779493118788848
461,9.434607651181146
2,5, 1, 5, 0,10, 0.00,60.00,Monday
7,7.2
398,9.633794353838494
461,10.865060552992917
2,5, 1, 5, 0,11, 0.00,60.00,Monday
7,7.841666666666666
398,11.025761180017142
461,12.732671814386334
2,5, 1, 5, 0,12, 0.00,60.00,Monday
7,8.65
398,12.88529482392849
461,14.746709031908415
2,5, 1, 5, 0,13, 0.00,60.00,Monday
7,9.191666666666666
398,14.619640798783328
461,16.2339561809885
2,5, 1, 5, 0,14, 0.00,60.00,Monday
7,10.1
398,16.513757348959327
461,17.64749829081573
2,5, 1, 5, 0,15, 0.00,60.00,Monday
7,10.891666666666666
398,18.48705409776719
461,18.765118443665035
2,5, 1, 5, 0,16, 0.00,60.00,Monday
7,10.458333333333334
398,19.634913090994885
461,19.064755653671124
2,5, 1, 5, 0,17, 0.00,60.00,Monday
7,10.350000000000001
398,18.96752984709136
461,18.242175028648788
2,5, 1, 5, 0,18, 0.00,60.00,Monday
7,9.9
398,17.616006776247012
461,17.1513101659736
2,5, 1, 5, 0,19, 0.00,60.00,Monday
7,9.108333333333333
398,16.489450275298267
461,16.176962157512335
2,5, 1, 5, 0,20, 0.00,60.00,Monday
7,8.9
398,15.713875648002002
461,15.465211047479677
2,5, 1, 5, 0,21, 0.00,60.00,Monday
7,8.258333333333333
398,15.055652992719496
461,14.841438118214201
2,5, 1, 5, 0,22, 0.00,60.00,Monday
7,8.091666666666667
398,14.482571501901724
461,14.289520828862516
2,5, 1, 5, 0,23, 0.00,60.00,Monday
7,8.008333333333333
398,13.31744194649229
461,13.157302012644378
2,5, 1, 5, 0,24, 0.00,60.00,Monday
7,7.45
398,12.532215398426446
461,12.387681099429491
2,6, 1, 6, 0, 1, 0.00,60.00,Tuesday
7,7.2
398,11.900376714132365
461,11.765717742899005
2,6, 1, 6, 0, 2, 0.00,60.00,Tuesday
7,6.908333333333334
398,11.336277017128571
461,11.20931007604726
2,6, 1, 6, 0, 3, 0.00,60.00,Tuesday
7,6.700000000000002
398,10.800095609678708
461,10.679375301241953
2,6, 1, 6, 0, 4, 0.00,60.00,Tuesday
7,6.700000000000002
398,10.365748360297326
461,10.251079801367629
2,6, 1, 6, 0, 5, 0.00,60.00,Tuesday
7,6.3500000000000005
398,9.914165319097036
461,9.804506098776018
2,6, 1, 6, 0, 6, 0.00,60.00,Tuesday
7,6.1000000000000005
398,9.44084313655682
461,9.334703587188189
2,6, 1, 6, 0, 7, 0.00,60.00,Tuesday
7,5.808333333333333
398,9.409702451509798
461,9.2933800421996
2,6, 1, 6, 0, 8, 0.00,60.00,Tuesday
7,5.25
398,9.182407418657387
461,9.159209177702408
2,6, 1, 6, 0, 9, 0.00,60.00,Tuesday
7,5.3500000000000005
398,9.558443808904904
461,10.442609539305902
2,6, 1, 6, 0,10, 0.00,60.00,Tuesday
7,5.891666666666666
398,10.667087419185707
461,12.525525578200948
2,6, 1, 6, 0,11, 0.00,60.00,Tuesday
7,6.45
398,11.75433988078924
461,13.759785869705814
2,6, 1, 6, 0,12, 0.00,60.00,Tuesday
7,6.700000000000002
398,12.413016445172373
461,14.018005640422826
2,6, 1, 6, 0,13, 0.00,60.00,Tuesday
7,6.991666666666667
398,13.60529776901528
461,14.9263415189793
2,6, 1, 6, 0,14, 0.00,60.00,Tuesday
7,7.55
398,15.28847057244814
461,16.221031230719493
2,6, 1, 6, 0,15, 0.00,60.00,Tuesday
7,8.091666666666667
398,16.858479994971674
461,17.095980220336774
2,6, 1, 6, 0,16, 0.00,60.00,Tuesday
7,8.299999999999999
398,17.924903809345498
461,17.43078784847655
2,6, 1, 6, 0,17, 0.00,60.00,Tuesday
7,8.299999999999999
398,17.23302855361545
461,16.63888900520553
2,6, 1, 6, 0,18, 0.00,60.00,Tuesday
7,8.299999999999999
398,15.981772813085954
461,15.620656133637807
2,6, 1, 6, 0,19, 0.00,60.00,Tuesday
7,8.299999999999999
398,15.172974334631808
461,14.92151229674793
2,6, 1, 6, 0,20, 0.00,60.00,Tuesday
7,8.008333333333333
398,14.495510971381053
461,14.296427490785044
2,6, 1, 6, 0,21, 0.00,60.00,Tuesday
7,7.158333333333334
398,13.888628602793943
461,13.716742414978773
2,6, 1, 6, 0,22, 0.00,60.00,Tuesday
7,6.700000000000002
398,13.337700989935259
461,13.18211873304494
2,6, 1, 6, 0,23, 0.00,60.00,Tuesday
7,8.625
398,12.56116264900627
461,12.433298660462826
2,6, 1, 6, 0,24, 0.00,60.00,Tuesday
7,9.358333333333334
398,12.350574383803076
461,12.240728105723278
2,7, 1, 7, 0, 1, 0.00,60.00,Wednesday
7,9.191666666666666
398,11.913788841434084
461,11.810882924447613
2,7, 1, 7, 0, 2, 0.00,60.00,Wednesday
7,9.108333333333333
398,11.608117824545895
461,11.512330652751148
2,7, 1, 7, 0, 3, 0.00,60.00,Wednesday
7,7.266666666666667
398,10.951785566552628
461,10.858188872795678
2,7, 1, 7, 0, 4, 0.00,60.00,Wednesday
7,6.45
398,10.224059226595733
461,10.130618572272313
2,7, 1, 7, 0, 5, 0.00,60.00,Wednesday
7,6.991666666666667
398,9.911821667945732
461,9.82315347218447
2,7, 1, 7, 0, 6, 0.00,60.00,Wednesday
7,7.841666666666666
398,9.77914710237704
461,9.696037534351737
2,7, 1, 7, 0, 7, 0.00,60.00,Wednesday
7,8.008333333333333
398,9.928729976397468
461,9.839766703112415
2,7, 1, 7, 0, 8, 0.00,60.00,Wednesday
7,8.441666666666666
398,9.899943406269214
461,9.811455343018059
2,7, 1, 7, 0, 9, 0.00,60.00,Wednesday
7,8.9
398,10.008425043227051
461,9.935609088264204
2,7, 1, 7, 0,10, 0.00,60.00,Wednesday
7,9.541666666666666
398,10.30479946767308
461,10.276437259037527
2,7, 1, 7, 0,11, 0.00,60.00,Wednesday
7,8.716666666666665
398,10.849531529109859
461,10.963557083037273
2,7, 1, 7, 0,12, 0.00,60.00,Wednesday
7,7.799999999999998
398,10.963190519825721
461,11.092694093317364
2,7, 1, 7, 0,13, 0.00,60.00,Wednesday
7,8.441666666666666
398,11.274084531561664
461,11.364381217603063
2,7, 1, 7, 0,14, 0.00,60.00,Wednesday
7,8.9
398,12.45576274217745
461,12.480536820978841
2,7, 1, 7, 0,15, 0.00,60.00,Wednesday
7,9.541666666666666
398,13.64656469025991
461,13.44930242862659
2,7, 1, 7, 0,16, 0.00,60.00,Wednesday
7,9.65
398,14.786974835125754
461,14.155453139815329
2,7, 1, 7, 0,17, 0.00,60.00,Wednesday
7,9.108333333333333
398,14.584409701944038
461,13.847445164917914
2,7, 1, 7, 0,18, 0.00,60.00,Wednesday
7,8.549999999999999
398,13.602165510266067
461,13.084152639370226
2,7, 1, 7, 0,19, 0.00,60.00,Wednesday
7,8.008333333333333
398,12.914688390571897
461,12.511892377072085
2,7, 1, 7, 0,20, 0.00,60.00,Wednesday
7,7.45
398,12.371089604919211
461,12.035025309508166
2,7, 1, 7, 0,21, 0.00,60.00,Wednesday
7,6.908333333333334
398,11.88977331841972
461,11.595567254343292
2,7, 1, 7, 0,22, 0.00,60.00,Wednesday
7,6.700000000000002
398,11.470040952759682
461,11.204240901802637
2,7, 1, 7, 0,23, 0.00,60.00,Wednesday
7,6.3500000000000005
398,10.569355469321682
461,10.351052370042352
2,7, 1, 7, 0,24, 0.00,60.00,Wednesday
7,5.808333333333333
398,9.978992169113312
461,9.787366525554779
2,8, 1, 8, 0, 1, 0.00,60.00,Thursday
7,5.6000000000000005
398,9.51208757039537
461,9.33744234321165
2,8, 1, 8, 0, 2, 0.00,60.00,Thursday
7,5.25
398,9.069708164542515
461,8.909256661886893
2,8, 1, 8, 0, 3, 0.00,60.00,Thursday
7,5.0
398,8.628831953656805
461,8.479566380401934
2,8, 1, 8, 0, 4, 0.00,60.00,Thursday
7,5.0
398,8.283715896836172
461,8.144212325338257
2,8, 1, 8, 0, 5, 0.00,60.00,Thursday
7,4.650000000000001
398,7.909830531189122
461,7.7788280318326315
2,8, 1, 8, 0, 6, 0.00,60.00,Thursday
7,4.3999999999999995
398,7.526277636936631
461,7.402259650702749
2,8, 1, 8, 0, 7, 0.00,60.00,Thursday
7,4.108333333333333
398,7.588623953892884
461,7.457131810349076
2,8, 1, 8, 0, 8, 0.00,60.00,Thursday
7,3.899999999999999
398,7.473866841090088
461,7.441485800145675
2,8, 1, 8, 0, 9, 0.00,60.00,Thursday
7,3.9583333333333335
398,8.00321000258441
461,9.031339036958252
2,8, 1, 8, 0,10, 0.00,60.00,Thursday
7,6.216666666666666
398,9.486796360689297
461,11.838699438012
2,8, 1, 8, 0,11, 0.00,60.00,Thursday
7,8.5
398,11.530363287506953
461,14.526717652943498
2,8, 1, 8, 0,12, 0.00,60.00,Thursday
7,9.583333333333334
398,13.614694191739643
461,16.475422545656915
2,8, 1, 8, 0,13, 0.00,60.00,Thursday
7,11.75
398,15.66676699131437
461,17.999446798419488
2,8, 1, 8, 0,14, 0.00,60.00,Thursday
7,12.416666666666666
398,17.52076173504376
461,19.17952018324822
2,8, 1, 8, 0,15, 0.00,60.00,Thursday
7,13.166666666666666
398,19.09003288217652
461,19.91190301353484
2,8, 1, 8, 0,16, 0.00,60.00,Thursday
7,13.94166666666667
398,20.266994637685798
461,20.243293408875942
2,8, 1, 8, 0,17, 0.00,60.00,Thursday
7,11.975000000000001
398,19.471654395699257
461,19.28459155113872
2,8, 1, 8, 0,18, 0.00,60.00,Thursday
7,11.241666666666667
398,18.036151123229974
461,18.001458420009502
2,8, 1, 8, 0,19, 0.00,60.00,Thursday
7,10.708333333333334
398,17.17535675001505
461,17.1929570979139
2,8, 1, 8, 0,20, 0.00,60.00,Thursday
7,9.358333333333334
398,16.381187235177865
461,16.411140928255197
2,8, 1, 8, 0,21, 0.00,60.00,Thursday
7,8.9
398,15.733512666936306
461,15.759999547614816
2,8, 1, 8, 0,22, 0.00,60.00,Thursday
7,9.191666666666666
398,15.228377012327252
461,15.247496762458036
2,8, 1, 8, 0,23, 0.00,60.00,Thursday
7,9.4
398,14.1795084449664
461,14.191094725730549
2,8, 1, 8, 0,24, 0.00,60.00,Thursday
7,9.108333333333333
398,13.516721397825506
461,13.521611230569057
2,9, 1, 9, 0, 1, 0.00,60.00,Friday
7,8.258333333333333
398,12.836018893166619
461,12.833601380315818
2,9, 1, 9, 0, 2, 0.00,60.00,Friday
7,9.083333333333334
398,12.405881483282528
461,12.397832128611386
2,9, 1, 9, 0, 3, 0.00,60.00,Friday
7,9.008333333333333
398,12.10743374027165
461,12.095424688665432
2,9, 1, 9, 0, 4, 0.00,60.00,Friday
7,7.016666666666668
398,11.298014273615125
461,11.279365823792647
2,9, 1, 9, 0, 5, 0.00,60.00,Friday
7,6.741666666666667
398,10.6426664114194
461,10.619841225616954
2,9, 1, 9, 0, 6, 0.00,60.00,Friday
7,6.908333333333334
398,10.271418549783936
461,10.246199710135285
2,9, 1, 9, 0, 7, 0.00,60.00,Friday
7,6.3500000000000005
398,10.18653504171876
461,10.155896983928981
2,9, 1, 9, 0, 8, 0.00,60.00,Friday
7,6.1000000000000005
398,9.950830571647016
461,10.04467440187843
2,9, 1, 9, 0, 9, 0.00,60.00,Friday
7,6.625
398,10.376604810292285
461,11.438751407914793
2,9, 1, 9, 0,10, 0.00,60.00,Friday
7,7.116666666666667
398,11.572166114017483
461,13.728088519582043
2,9, 1, 9, 0,11, 0.00,60.00,Friday
7,7.666666666666667
398,13.151903727777125
461,15.861666921691956
2,9, 1, 9, 0,12, 0.00,60.00,Friday
7,8.0
398,14.856406502769547
461,17.457251235175956
2,9, 1, 9, 0,13, 0.00,60.00,Friday
7,8.583333333333334
398,16.460725336100765
461,18.587908045102164
2,9, 1, 9, 0,14, 0.00,60.00,Friday
7,9.0
398,17.785873854035792
461,19.30949636758142
2,9, 1, 9, 0,15, 0.00,60.00,Friday
7,10.166666666666666
398,19.03711673376411
461,19.778256507154687
2,9, 1, 9, 0,16, 0.00,60.00,Friday
7,10.825000000000001
398,19.26806978920047
461,19.50734566868996
2,9, 1, 9, 0,17, 0.00,60.00,Friday
7,10.291666666666666
398,18.17965080710262
461,18.37880277234792
2,9, 1, 9, 0,18, 0.00,60.00,Friday
7,10.0
398,17.113844258683827
461,17.33317145627449
2,9, 1, 9, 0,19, 0.00,60.00,Friday
7,9.65
398,16.358638574383722
461,16.567605027525314
2,9, 1, 9, 0,20, 0.00,60.00,Friday
7,9.108333333333333
398,15.707092556939882
461,15.892742351132817
2,9, 1, 9, 0,21, 0.00,60.00,Friday
7,8.549999999999999
398,15.117122961593635
461,15.276336837715059
2,9, 1, 9, 0,22, 0.00,60.00,Friday
7,8.008333333333333
398,14.55195402550094
461,14.686901770683336
2,9, 1, 9, 0,23, 0.00,60.00,Friday
7,7.158333333333334
398,13.211911597191706
461,13.315305792966862
2,9, 1, 9, 0,24, 0.00,60.00,Friday
7,6.700000000000002
398,12.345654394088408
461,12.427727914360302
2,10, 1,10, 0, 1, 0.00,60.00,Saturday
7,6.700000000000002
398,11.738203167004933
461,11.804811361059032
2,10, 1,10, 0, 2, 0.00,60.00,Saturday
7,6.700000000000002
398,11.199525253218217
461,11.25486267141934
2,10, 1,10, 0, 3, 0.00,60.00,Saturday
7,6.3500000000000005
398,10.646269361446775
461,10.691990011558767
2,10, 1,10, 0, 4, 0.00,60.00,Saturday
7,6.1000000000000005
398,10.12241051969443
461,10.16039145421683
2,10, 1,10, 0, 5, 0.00,60.00,Saturday
7,6.1000000000000005
398,9.710416784771331
461,9.742409657895264
2,10, 1,10, 0, 6, 0.00,60.00,Saturday
7,6.1000000000000005
398,9.330227179084076
461,9.35708302655659
2,10, 1,10, 0, 7, 0.00,60.00,Saturday
7,5.108333333333334
398,9.262075375206974
461,9.284699074342754
2,10, 1,10, 0, 8, 0.00,60.00,Saturday
7,5.1000000000000005
398,9.019062206429348
461,9.163396039098432
2,10, 1,10, 0, 9, 0.00,60.00,Saturday
7,6.3
398,9.564949142555465
461,10.659822769393372
2,10, 1,10, 0,10, 0.00,60.00,Saturday
7,6.8
398,10.76306003810503
461,12.854103555951307
2,10, 1,10, 0,11, 0.00,60.00,Saturday
7,6.9750000000000005
398,12.167636860208669
461,14.642629416389726
2,10, 1,10, 0,12, 0.00,60.00,Saturday
7,7.333333333333333
398,13.637808426907293
461,15.958820479438591
2,10, 1,10, 0,13, 0.00,60.00,Saturday
7,8.025
398,15.088422966209732
461,17.003292876641083
2,10, 1,10, 0,14, 0.00,60.00,Saturday
7,8.341666666666669
398,16.52907107824601
461,17.898850526265935
2,10, 1,10, 0,15, 0.00,60.00,Saturday
7,9.116666666666667
398,18.121165497145807
461,18.678336965209457
2,10, 1,10, 0,16, 0.00,60.00,Saturday
7,9.875
398,19.335674560068544
461,19.05500406582472
2,10, 1,10, 0,17, 0.00,60.00,Saturday
7,9.358333333333334
398,18.666756936955313
461,18.22898910964184
2,10, 1,10, 0,18, 0.00,60.00,Saturday
7,8.549999999999999
398,17.190452486220373
461,16.981262533437963
2,10, 1,10, 0,19, 0.00,60.00,Saturday
7,8.008333333333333
398,15.34227453059958
461,15.241354611445976
2,10, 1,10, 0,20, 0.00,60.00,Saturday
7,7.45
398,14.217506763314475
461,14.1599409635542
2,10, 1,10, 0,21, 0.00,60.00,Saturday
7,6.908333333333334
398,13.371390365178483
461,13.32990707025194
2,10, 1,10, 0,22, 0.00,60.00,Saturday
7,6.700000000000002
398,12.671594526513166
461,12.636303405971459
2,10, 1,10, 0,23, 0.00,60.00,Saturday
7,6.700000000000002
398,12.102921007810517
461,12.069982950722244
2,10, 1,10, 0,24, 0.00,60.00,Saturday
7,6.700000000000002
398,11.59510741318509
461,11.562403898922057
2,11, 1,11, 0, 1, 0.00,60.00,Sunday
7,6.058333333333334
398,11.023578692690458
461,10.989750847830388
2,11, 1,11, 0, 2, 0.00,60.00,Sunday
7,5.891666666666666
398,10.476972915961333
461,10.441970475557858
2,11, 1,11, 0, 3, 0.00,60.00,Sunday
7,5.808333333333333
398,10.055630405646554
461,10.020193967834048
2,11, 1,11, 0, 4, 0.00,60.00,Sunday
7,4.608333333333333
398,9.413698292353075
461,9.376291512036603
2,11, 1,11, 0, 5, 0.00,60.00,Sunday
7,4.541666666666667
398,8.839035261475136
461,8.799849609392341
2,11, 1,11, 0, 6, 0.00,60.00,Sunday
7,4.3583333333333325
398,8.41556900711467
461,8.374910056133045
2,11, 1,11, 0, 7, 0.00,60.00,Sunday
7,4.541666666666667
398,7.997715262422054
461,7.956419463977411
2,11, 1,11, 0, 8, 0.00,60.00,Sunday
7,4.650000000000001
398,7.776287724541159
461,7.819364981578139
2,11, 1,11, 0, 9, 0.00,60.00,Sunday
7,5.333333333333333
398,8.070873769974684
461,8.743020548789135
2,11, 1,11, 0,10, 0.00,60.00,Sunday
7,6.058333333333334
398,8.85905706328846
461,9.936164807489709
2,11, 1,11, 0,11, 0.00,60.00,Sunday
7,6.041666666666667
398,9.999929501235899
461,11.487950902793074
2,11, 1,11, 0,12, 0.00,60.00,Sunday
7,6.583333333333333
398,11.578498871379445
461,13.188862703737591
2,11, 1,11, 0,13, 0.00,60.00,Sunday
7,7.583333333333333
398,12.754564854988502
461,14.03112541979337
2,11, 1,11, 0,14, 0.00,60.00,Sunday
7,8.0
398,14.138962980445953
461,14.971039917339048
2,11, 1,11, 0,15, 0.00,60.00,Sunday
7,8.583333333333334
398,15.7717119149887
461,15.89796078794879
2,11, 1,11, 0,16, 0.00,60.00,Sunday
7,9.583333333333334
398,16.983341672712267
461,16.37054096439195
2,11, 1,11, 0,17, 0.00,60.00,Sunday
7,9.65
398,16.373209899348822
461,15.69783578602314
2,11, 1,11, 0,18, 0.00,60.00,Sunday
7,9.4
398,15.021003502575786
461,14.629766472400517
2,11, 1,11, 0,19, 0.00,60.00,Sunday
7,9.75
398,14.28021555507337
461,14.02179347133338
2,11, 1,11, 0,20, 0.00,60.00,Sunday
7,10.0
398,13.824982544508538
461,13.634371438105568
2,11, 1,11, 0,21, 0.00,60.00,Sunday
7,10.0
398,13.445620234082327
461,13.292407467973632
2,11, 1,11, 0,22, 0.00,60.00,Sunday
7,10.0
398,13.125385146903938
461,12.99482533896908
2,11, 1,11, 0,23, 0.00,60.00,Sunday
7,10.0
398,12.840781291613888
461,12.725700886422667
2,11, 1,11, 0,24, 0.00,60.00,Sunday
7,10.0
398,12.59788477090522
461,12.494690575652475
2,12, 1,12, 0, 1, 0.00,60.00,Monday
7,10.0
398,12.367208657992279
461,12.273022162376733
2,12, 1,12, 0, 2, 0.00,60.00,Monday
7,10.0
398,12.124187431955017
461,12.036088422335967
2,12, 1,12, 0, 3, 0.00,60.00,Monday
7,9.008333333333333
398,11.706047389427242
461,11.621670128866691
2,12, 1,12, 0, 4, 0.00,60.00,Monday
7,8.008333333333333
398,11.11454932260209
461,11.03085200869765
2,12, 1,12, 0, 5, 0.00,60.00,Monday
7,7.45
398,10.628483236911523
461,10.546363915111003
2,12, 1,12, 0, 6, 0.00,60.00,Monday
7,6.908333333333334
398,10.136172302877373
461,10.054660853107933
2,12, 1,12, 0, 7, 0.00,60.00,Monday
7,6.991666666666667
398,10.134951688321612
461,10.04660162683776
2,12, 1,12, 0, 8, 0.00,60.00,Monday
7,7.2
398,10.069441421797478
461,10.096968805274352
2,12, 1,12, 0, 9, 0.00,60.00,Monday
7,6.908333333333334
398,10.532259163779226
461,11.46082277496223
2,12, 1,12, 0,10, 0.00,60.00,Monday
7,6.991666666666667
398,11.789547906142738
461,13.867203604564082
2,12, 1,12, 0,11, 0.00,60.00,Monday
7,7.55
398,13.580809534686345
461,16.344214943987236
2,12, 1,12, 0,12, 0.00,60.00,Monday
7,8.733333333333333
398,15.55095423121744
461,18.265654067372704
2,12, 1,12, 0,13, 0.00,60.00,Monday
7,10.1
398,17.378031941668183
461,19.604667405340965
2,12, 1,12, 0,14, 0.00,60.00,Monday
7,9.9
398,18.89159040012676
461,20.461653950320734
2,12, 1,12, 0,15, 0.00,60.00,Monday
7,11.674999999999999
398,20.21420138056948
461,20.966335877613105
2,12, 1,12, 0,16, 0.00,60.00,Monday
7,12.016666666666667
398,20.156873721521865
461,20.51257220794372
2,12, 1,12, 0,17, 0.00,60.00,Monday
7,10.458333333333334
398,18.805660416752243
461,19.151389733081633
2,12, 1,12, 0,18, 0.00,60.00,Monday
7,9.65
398,17.73104877808757
461,18.04160296125366
2,12, 1,12, 0,19, 0.00,60.00,Monday
7,9.4
398,16.986861882341625
461,17.256850756503795
2,12, 1,12, 0,20, 0.00,60.00,Monday
7,9.4
398,16.435967609148488
461,16.668374149370067
2,12, 1,12, 0,21, 0.00,60.00,Monday
7,9.4
398,15.953427310836867
461,16.15318671651013
2,12, 1,12, 0,22, 0.00,60.00,Monday
7,9.75
398,15.550155283729666
461,15.722951739458578
2,12, 1,12, 0,23, 0.00,60.00,Monday
7,10.0
398,14.58889895861734
461,14.724840123421941
2,12, 1,12, 0,24, 0.00,60.00,Monday
7,10.0
398,14.026745085317316
461,14.139600182054002
2,13, 1,13, 0, 1, 0.00,60.00,Tuesday
7,9.65
398,13.5504072568281
461,13.646803332106424
2,13, 1,13, 0, 2, 0.00,60.00,Tuesday
7,9.4
398,13.097401717315526
461,13.181089841302564
2,13, 1,13, 0, 3, 0.00,60.00,Tuesday
7,9.4
398,12.737429296269857
461,12.810677593192827
2,13, 1,13, 0, 4, 0.00,60.00,Tuesday
7,9.4
398,12.418631072823649
461,12.483012696106124
2,13, 1,13, 0, 5, 0.00,60.00,Tuesday
7,9.75
398,12.193351033409769
461,12.25047904984327
2,13, 1,13, 0, 6, 0.00,60.00,Tuesday
7,9.65
398,11.972095742545982
461,12.023099436671748
2,13, 1,13, 0, 7, 0.00,60.00,Tuesday
7,9.4
398,11.98708526179373
461,12.037349482629196
2,13, 1,13, 0, 8, 0.00,60.00,Tuesday
7,9.4
398,11.887600132547583
461,11.934549511107733
2,13, 1,13, 0, 9, 0.00,60.00,Tuesday
7,9.4
398,11.846153565470017
461,11.900328092939043
2,13, 1,13, 0,10, 0.00,60.00,Tuesday
7,9.108333333333333
398,11.912639817878778